<VTKFile type="PolyData" version="0.1" byte_order="LittleEndian">
  <PolyData>
    <Piece NumberOfPoints="203" NumberOfVerts="0" NumberOfLines="0" NumberOfStrips="0" NumberOfPolys="398">
      <PointData Normals="Normals">
        <DataArray type="Float32" Name="Normals" NumberOfComponents="3" format="ascii" RangeMin="0.99999933027" RangeMax="1.0000006848">
          0.70235002041 0.60300797224 -0.37826600671 0.73151701689 0.18964800239 0.654918015
          0.80178201199 -0.51998400688 -0.29455301166 0.73324602842 0.45339000225 -0.5067409873
          0.50859302282 0.85161501169 -0.12682899833 0.26440399885 0.79262900352 0.54939001799
          0.34039598703 -0.1967779994 0.91946101189 0.2202450037 -0.92783802748 0.30101299286
          0.5302489996 -0.81476098299 -0.23452299833 0.50214701891 0.81496602297 -0.28927201033
          0.85991799831 0.3729659915 -0.34847798944 0.77946597338 -0.55034899712 -0.29924601316
          0.1105979979 0.95439898968 0.27729299664 0.023584999144 0.22394600511 0.97431600094
          0.15232600272 -0.70795297623 0.68963700533 -0.047763999552 -0.92722100019 0.37145701051
          0.0068819997832 -0.99996697903 -0.004279000219 0.02024400048 -0.99917399883 0.035231001675
          0.10940799862 0.98892802 0.10025600344 0.58184999228 0.78675299883 -0.20608200133
          0.99393200874 -0.083550997078 -0.071548998356 0.49031201005 -0.87060701847 0.040454998612
          0.071157999337 -0.99188500643 0.10535699874 -0.24992999434 0.66494202614 0.70383799076
          -0.31029200554 -0.37520799041 0.87346297503 -0.19698299468 -0.974635005 -0.10622899979
          -0.43603399396 -0.86085098982 0.26231700182 -0.61460798979 -0.27984300256 0.73752701283
          -0.37870699167 -0.92225497961 0.077630996704 -0.4400959909 -0.86657500267 0.23529599607
          -0.51880699396 0.75739902258 0.39646598697 -0.48855999112 0.53901398182 0.68612897396
          0.22570499778 0.97332602739 -0.041152998805 0.61885100603 0.77367198467 -0.13584800065
          0.99751001596 -0.041331999004 0.057137999684 0.42231199145 -0.89079201221 0.1677570045
          0.1263410002 -0.97554302216 0.17987200618 -0.23456500471 -0.92405599356 0.30182901025
          -0.74926400185 -0.64696097374 -0.14157900214 -0.80868601799 -0.54534798861 -0.22050699592
          -0.96768200397 -0.10380200297 0.22981999815 -0.8646299839 -0.50176298618 -0.025492999703
          -0.92726802826 -0.34553700686 0.14415000379 -0.54686498642 0.83697998524 -0.020065000281
          0.31785601377 0.94631302357 -0.058809999377 0.7114790082 0.70170897245 0.037450000644
          0.92403298616 -0.050413999707 0.37897500396 0.14893700182 -0.92659598589 0.34530898929
          0.079282999039 -0.97436797619 0.21052399278 -0.73576200008 -0.66967397928 -0.10094799846
          0.050629999489 -0.96574497223 0.25450798869 -0.9691619873 0.1909929961 -0.15571600199
          -0.94946801662 0.12235099822 -0.2890329957 -0.95840799809 0.19878199697 -0.20479300618
          -0.88238298893 0.25424599648 -0.39592701197 -0.5442969799 0.81064200401 -0.21587200463
          0.34384799004 0.93876200914 -0.022244999185 0.74320697784 0.63473701477 0.21154899895
          0.87814897299 0.14625699818 0.45548200607 0.43569400907 -0.7291200161 0.52778297663
          -0.24330699444 -0.95065802336 0.19248999655 -0.25192400813 -0.90712797642 0.33712500334
          -0.35528200865 -0.90877497196 -0.2188680023 -0.051693998277 -0.98707300425 0.15170699358
          -0.72867697477 0.10907799751 -0.67611598969 -0.53546398878 0.77720099688 -0.33050900698
          -0.41817098856 0.82197797298 -0.38663300872 -0.31448799372 0.81611102819 -0.48482999206
          0.29742500186 0.94603300095 -0.12868200243 0.75533699989 0.55155098438 0.35391798615
          0.72337502241 0.6395559907 0.26018500328 0.80296802521 0.47083601356 0.36545398831
          0.87344497442 0.021408999339 0.48645201325 0.61722397804 -0.54137897491 0.57091498375
          -0.31195101142 -0.8983039856 0.30941298604 -0.26732999086 -0.95802801847 0.10352399945
          -0.48563599586 -0.87129998207 0.070667997003 -0.73407101631 0.17331700027 -0.65658199787
          -0.57777100801 -0.75367701054 -0.31329199672 -0.2491530031 0.81161397696 -0.52839797735
          0.33979299664 0.93596601486 -0.092238999903 0.38955101371 0.91865098476 -0.065802000463
          0.8142619729 0.48947399855 0.31207799911 0.80080801249 0.48464500904 0.35188800097
          0.72402900457 0.65549397469 0.21472899616 0.85796797276 0.28415700793 0.42795500159
          0.71497297287 -0.39247700572 0.57859802246 -0.21920199692 -0.94608598948 0.23847800493
          -0.68919199705 -0.71723598242 -0.10289400071 -0.663811028 -0.65844702721 -0.35468500853
          -0.43905100226 -0.89810502529 -0.025325000286 -0.23931899667 0.80371397734 -0.54476600885
          -0.73608201742 0.16111600399 -0.65743899345 0.42039701343 0.89834499359 -0.12744599581
          0.72681200504 0.65466797352 0.2077369988 0.8704969883 0.14303800464 0.47093099356
          -0.095463998616 -0.95365697145 0.28535100818 0.66112601757 -0.49882900715 0.56042999029
          -0.64768797159 -0.75423902273 -0.1078120023 -0.76161599159 0.22830399871 -0.6064800024
          -0.7726200223 -0.55497300625 -0.3083229959 0.44107198715 0.89447402954 -0.073298998177
          -0.16305799782 0.90638697147 -0.38971099257 0.72127097845 0.66748297215 0.18502700329
          0.72597497702 -0.49794301391 0.47435501218 0.91497701406 0.24433599412 0.32111799717
          -0.67495399714 -0.73774498701 -0.012989999726 -0.10103599727 -0.95795702934 0.26853400469
          -0.8688570261 -0.45192700624 -0.20211300254 -0.82620197535 0.30054301023 -0.47651201487
          0.67584002018 0.7168790102 0.17124499381 0.4416269958 0.89717698097 -0.0062259999104
          -0.066678002477 0.96350800991 -0.25924301147 -0.044617000967 -0.96083801985 0.27349600196
          0.81080901623 -0.45250600576 0.37125000358 0.84759402275 0.51111000776 0.14265799522
          0.86499398947 0.46294701099 0.19356200099 0.95164901018 0.1357550025 0.27556398511
          -0.91421401501 -0.37875300646 -0.14408199489 -0.69121897221 -0.72039097548 0.057041998953
          -0.87200701237 0.33224400878 -0.35946801305 -0.21717299521 0.94185197353 -0.25641798973
          0.56350702047 0.82463401556 0.049380999058 -0.60572499037 -0.78978699446 0.096606001258
          0.17441000044 -0.93945801258 0.29495799541 0.84354901314 -0.45681300759 0.2823959887
          0.97167897224 0.068556003273 0.22614300251 0.86682999134 0.46679100394 0.17524899542
          0.57147300243 0.8161380291 0.085653997958 -0.90648901463 0.37379398942 -0.19635799527
          -0.93313199282 -0.35823300481 -0.03056900017 -0.21766200662 0.9632319808 -0.15750400722
          -0.68747699261 -0.71907097101 0.10155200213 0.0077450000681 -0.97171998024 0.23601000011
          0.82670497894 -0.53067302704 0.18693399429 0.99185597897 0.015130000189 0.12646299601
          0.81100702286 0.5849750042 -0.0084469998255 0.49364599586 0.8691239953 0.030624000356
          -0.92808198929 0.37235599756 0.003795000026 -0.25784900784 0.96559000015 -0.033914998174
          -0.95758402348 -0.26834800839 0.10498599708 -0.66512399912 -0.72591197491 0.17510600388
          0.12942099571 -0.97244799137 0.19389699399 0.84499800205 -0.52107000351 0.12026599795
          0.99848598242 0.025670999661 0.048641998321 0.52980899811 0.82340598106 -0.20323799551
          0.67761898041 0.73332297802 -0.055401999503 0.59795802832 0.79377198219 -0.11122900248
          0.98302799463 0.18336300552 -0.0058769998141 -0.21754799783 0.97042101622 -0.10467100143
          -0.92568397522 0.33024799824 0.18451300263 -0.93502998352 -0.27814599872 0.21989500523
          -0.6453909874 -0.7544940114 0.11920499802 0.25953400135 -0.95550900698 0.14015799761
          0.87407398224 -0.47819000483 0.085606001318 0.98889499903 0.13273499906 -0.066849000752
          0.79952800274 0.59961700439 0.034859001637 -0.13721400499 0.96168297529 0.23735800385
          0.62427300215 0.77373898029 0.10775700212 0.89872801304 -0.43121099472 -0.0796540007
          -0.88591098785 0.30444699526 0.34996399283 -0.85397797823 -0.40103501081 0.33150199056
          -0.60391998291 -0.6865350008 0.40490800142 -0.46044099331 -0.85759198666 0.22919499874
          0.21677400172 -0.97620600462 0.005574000068 0.92130798101 -0.30705299973 -0.23855699599
          0.96408599615 0.097381003201 -0.24709099531 0.86599898338 0.49965399504 -0.019772000611
          -0.16893799603 0.9418579936 0.29045501351 0.5723670125 0.79407697916 0.20454199612
          0.38131600618 -0.91560101509 -0.12756800652 -0.82580000162 0.29095199704 0.48311701417
          -0.51423299313 -0.67220199108 0.53264302015 -0.8429300189 -0.1555660069 0.51504302025
          -0.42751199007 -0.7270039916 0.537307024 -0.16873699427 -0.97914397717 0.11315699667
          0.25556498766 -0.7067220211 -0.6597200036 0.80020397902 -0.18500000238 -0.57048100233
          0.24608699977 -0.068002000451 -0.96685898304 0.92678797245 0.11854100227 -0.35638800263
          0.81496101618 0.57602101564 -0.063552998006 -0.36725598574 0.82661098242 0.42642399669
          0.58513599634 0.80877500772 0.059151999652 0.0013229999458 0.98364901543 -0.18009099364
          -0.040061000735 -0.78042799234 -0.62396001816 -0.83398097754 0.31670498848 0.45185500383
          -0.74898701906 -0.55638301373 0.3598009944 -0.33996200562 -0.9310079813 0.13285599649
          -0.88845199347 -0.000904000015 0.458968997 -0.049116998911 0.089942999184 -0.99473500252
          0.48630800843 0.36270999908 -0.79495000839 0.051426000893 -0.18489600718 -0.9814119935
          0.32057899237 0.71556299925 -0.62064397335 -0.63825702667 0.70923298597 -0.29935899377
          -0.14186899364 0.39329901338 -0.90839898586 -0.07738699764 -0.78542798758 -0.61409598589
          -0.96728098392 0.23589199781 -0.093390002847 -0.459720999 -0.45184600353 -0.76452100277
          -0.064782999456 0.21486799419 -0.97449201345 0.086653001606 -0.209897995 -0.97387599945
          -0.57068800926 0.71457099915 -0.40460300446 -0.57068800926 0.71457099915 -0.40460300446
          -0.57068800926 0.71457099915 -0.40460300446
        </DataArray>
      </PointData>
      <CellData>
      </CellData>
      <Points>
        <DataArray type="Float32" Name="Points" NumberOfComponents="3" format="ascii" RangeMin="2.4779024054e-005" RangeMax="0.12718935292">
          -0.015460999683 0.01958299987 0.11275000125 -0.014507999644 0.018686000258 0.12007199973
          -0.014286999591 0.015635000542 0.1128450036 -0.017811000347 0.017402999103 0.10774900019
          -0.01822900027 0.022388000041 0.11409900337 -0.023962000385 0.023762999102 0.12032800168
          -0.020206000656 0.019840000197 0.12192700058 -0.018354000524 0.015128999949 0.11657200009
          -0.018071999773 0.015107000247 0.10678499937 -0.021973999217 0.022730000317 0.10920800269
          -0.019473999739 0.016424000263 0.10423500091 -0.019747000188 0.01456599962 0.10164599866
          -0.026413999498 0.025085000321 0.11732000113 -0.024940000847 0.020920999348 0.12295299768
          -0.022893000394 0.016357999295 0.1202000007 -0.02624199912 0.015057999641 0.1182340011
          -0.022424999624 0.014090999961 0.10770700127 -0.024321999401 0.014046000317 0.10269100219
          -0.02970300056 0.025913000107 0.11139199883 -0.024155000225 0.022167999297 0.10371500254
          -0.019669000059 0.015672000125 0.099142000079 -0.021237000823 0.014320000075 0.09622900188
          -0.025265000761 0.013465000317 0.096134997904 -0.029045000672 0.023225000128 0.12102700025
          -0.028729999438 0.01794200018 0.12170299888 -0.029311999679 0.015079000033 0.10859300196
          -0.034878000617 0.014556000009 0.11594299972 -0.036272000521 0.016336999834 0.11642999947
          -0.030342999846 0.015035999939 0.10322800279 -0.031830001622 0.013880999759 0.096410997212
          -0.037778999656 0.025398999453 0.11154299974 -0.034770000726 0.024348000064 0.11589399725
          -0.031527001411 0.026081999764 0.10481400043 -0.025962999091 0.022044999525 0.098218999803
          -0.019773999229 0.015139999799 0.094805002213 -0.020602999255 0.013753999956 0.092809997499
          -0.025136999786 0.01243800018 0.091666996479 -0.033231001347 0.012052999809 0.08893699944
          -0.039012998343 0.016831999645 0.10936400294 -0.039159998298 0.020297000185 0.10202100128
          -0.040311999619 0.019422000274 0.11076500267 -0.03627999872 0.019438000396 0.096993997693
          -0.035039998591 0.014333000407 0.0887439996 -0.038272000849 0.02575699985 0.10464999825
          -0.030215999112 0.024911999702 0.097732998431 -0.025390999392 0.020469000563 0.091853000224
          -0.018682999536 0.013279000297 0.089877001941 -0.020333999768 0.012755000032 0.089392997324
          -0.024927999824 0.011326000094 0.086708001792 -0.03443299979 0.0099339997396 0.083362996578
          -0.02933399938 0.010484999977 0.085000999272 -0.039181001484 0.023714000359 0.10352399945
          -0.037176001817 0.022110000253 0.096908003092 -0.035305999219 0.019424000755 0.088375002146
          -0.034627001733 0.016877999529 0.082443997264 -0.036547001451 0.024830000475 0.097869001329
          -0.029087999836 0.024645999074 0.091252997518 -0.022781999782 0.019692000002 0.086497999728
          -0.016582999378 0.011742999777 0.08456300199 -0.016573000699 0.010106000118 0.083539001644
          -0.021082000807 0.0097890002653 0.08067599684 -0.018490999937 0.0090770004317 0.082570001483
          -0.026790000498 0.008837999776 0.076155997813 -0.023481000215 0.01003499981 0.078896999359
          -0.028025999665 0.014457000419 0.074997000396 -0.033275000751 0.023453999311 0.088858999312
          -0.03126199916 0.021554000676 0.083324000239 -0.025444999337 0.019209999591 0.075211003423
          -0.02593100071 0.022351000458 0.084444999695 -0.017580000684 0.014639000408 0.082084000111
          -0.018193999305 0.017070999369 0.080527998507 -0.015270999633 0.012531000189 0.082084998488
          -0.012870999984 0.0098829995841 0.078561000526 -0.0134060001 0.0073730000295 0.078355997801
          -0.015926999971 0.0058189998381 0.077370002866 -0.020826999098 0.0081770000979 0.072442002594
          -0.017784999683 0.0075229997747 0.074929997325 -0.023489000276 0.01292899996 0.07013399899
          -0.022856000811 0.0082630002871 0.070501998067 -0.020813999698 0.017890999094 0.071103997529
          -0.020574999973 0.019503999501 0.077359996736 -0.017591999844 0.017681999132 0.072765998542
          -0.01311600022 0.011258999817 0.07776799798 -0.013446999714 0.012129000388 0.077307000756
          -0.014531999826 0.015097999945 0.075319997966 -0.0088419998065 0.0078779999167 0.072640001774
          -0.0086519997567 0.0063789999112 0.071883000433 -0.01215500012 0.0015300000086 0.070485003293
          -0.01369599998 0.0047519998625 0.069146998227 -0.018185000867 0.0070560001768 0.065609000623
          -0.01601199992 0.0061110001989 0.06719700247 -0.016499999911 0.015521000139 0.066592998803
          -0.018815999851 0.011719999835 0.065231002867 -0.013922999613 0.015556000173 0.068094998598
          -0.011137999594 0.013062999584 0.070317000151 -0.0042599998415 0.005408000201 0.066123999655
          -0.0074829999357 -0.00011899999663 0.064889997244 -0.004284999799 0.0030739998911 0.065728999674
          -0.010276000015 0.0031089999247 0.062279999256 -0.013774000108 0.008713000454 0.059154998511
          -0.01360299997 0.0056289997883 0.059950999916 -0.0097909998149 0.012147000059 0.061914999038
          -0.011456999928 0.012512000278 0.060506001115 -0.0065040001646 0.0096599999815 0.064485996962
          6.3999999838e-005 5.8000001445e-005 0.058485999703 -4.7000001359e-005 0.0032540000975 0.059232998639
          -0.0069280001335 0.00021800000104 0.056124001741 -0.0039169997908 -0.0026199999265 0.057670999318
          -0.0099390000105 0.0026120000985 0.053876001388 -0.0097430003807 0.0068620000966 0.052689000964
          -0.0020179999992 0.0074229999445 0.057914000005 -0.0050229998305 0.0096659995615 0.056212000549
          -0.0076060001738 0.01052199956 0.053775999695 -0.00080500001786 -0.0050340001471 0.049313001335
          0.003810999915 -0.0024619998876 0.049743000418 0.00054999999702 0.0057959998958 0.053741998971
          0.0017869999865 0.0039750002325 0.049864001572 0.0032039999496 -0.00016500000493 0.051066000015
          -0.0067360000685 -2.4000000849e-005 0.045581001788 -0.0033539999276 -0.0033199999016 0.04804699868
          -0.0063579999842 0.0042229997925 0.045203998685 -0.0026680000592 0.0080239996314 0.044218998402
          0.00023099999817 0.0068850000389 0.044943999499 -0.0023060000967 -0.0057419999503 0.040869001299
          0.0017979999539 -0.0073000001721 0.042396001518 0.0062199998647 -0.0041279997677 0.042181000113
          0.0066689997911 -0.0014059999958 0.04232500121 0.0051130000502 0.0028629999142 0.041852001101
          0.0024220000487 0.0061679999344 0.040552001446 -0.0041709998623 0.0024560000747 0.037608001381
          -0.0043170000426 -0.0028860000893 0.037689000368 -0.00038700000732 0.0072260000743 0.039335999638
          -0.0015369999455 -0.0064300000668 0.036717999727 0.003303000005 -0.0092179998755 0.036515001208
          0.006763999816 -0.006713999901 0.035192001611 0.0084290001541 -0.0026769998949 0.034056998789
          0.0076000001281 0.0018380000256 0.031086999923 0.0035830000415 0.0054060001858 0.030783999711
          -0.0031930000987 0.0015589999966 0.029910000041 0.00095800001873 0.0064539997838 0.030389999971
          -0.0037350000348 -0.0047599999234 0.030078999698 -0.0014690000098 -0.0084699997678 0.029295999557
          0.003694999963 -0.010935000144 0.029883999377 0.0078499997035 -0.0076830000617 0.029331000522
          0.0088609997183 -0.0016009999672 0.028512999415 0.0038479999639 0.0054580001161 0.028233999386
          0.0072400001809 0.0014819999924 0.020972000435 0.003071000101 0.0031359998975 0.024586999789
          0.0094229998067 -0.0016990000149 0.021381000057 0.00048300001072 0.0060809999704 0.026211999357
          -0.0039380001836 0.00038400001358 0.02400900051 -0.0042260000482 -0.0054440000094 0.022328000516
          -0.0016189999878 -0.0103219999 0.020760999992 0.0040480000898 -0.012322999537 0.022406000644
          0.008566999808 -0.0087780002505 0.022392999381 0.0098759997636 -0.0036039999686 0.01504699979
          0.0072619998828 0.0012659999775 0.014278000221 -9.2000002041e-005 0.0060840002261 0.021443000063
          0.0036889999174 0.0056190001778 0.014192000031 0.0089100003242 -0.0097270002589 0.01561500039
          -0.0053340001032 0.00034699999378 0.019349999726 -0.0059529999271 -0.0046100001782 0.017199000344
          -0.0031930000987 -0.0075799999759 0.011723999865 -0.0015210000565 -0.011672000401 0.010383999906
          0.004939999897 -0.013585000299 0.014487000182 0.0078170001507 -0.0088099995628 0.0082660000771
          0.0099440002814 -0.0046029998921 0.0084830000997 0.0080190002918 0.0011589999776 0.007958999835
          -0.00086899998132 0.0077300001867 0.014550000429 0.004360999912 0.0050070001744 0.0081949997693
          0.0051879999228 -0.012563999742 0.0092599997297 -0.0076640001498 0.0010939999484 0.012573000044
          -0.0074289999902 -0.0075449999422 0.0099039999768 -0.0089699998498 -0.0041649998166 0.010355000384
          -0.0047470000573 -0.010712999851 0.008332000114 -0.0013689999469 -0.012974999845 0.0067859999835
          0.0065120002255 -0.010545000434 0.00067400000989 0.0075949998572 -0.0074990000576 -0.00096600002144
          0.0064880000427 -0.0021450000349 -0.00086500000907 0.0083229998127 -0.001065999968 0.0063100000843
          0.0061739999801 0.004418999888 0.0045839999802 -0.0039249998517 0.0091049997136 0.0093510001898
          0.0028409999795 0.0081430003047 0.0048039997928 -0.0035649999045 0.010734000243 0.0047439998016
          0.0017600000137 -0.012102000415 0.0031010000966 -0.01022499986 0.0026279999875 0.0071840002201
          -0.012272999622 -0.0090939998627 0.002931999974 -0.0066650002263 -0.011926000006 0.0046430001967
          -0.012773999944 -0.0027369998861 0.0043540000916 -1.8000000637e-005 -1.7000000298e-005 -9.9999999748e-007
          0.0064739999361 0.0026549999602 -0.00031599999056 0.00080699997488 -0.0047590001486 0.00037900000461
          0.0026769998949 0.0065540000796 0.0006970000104 -0.010281000286 0.0049549997784 0.002858000109
          -0.0019460000331 0.004803000018 0.00070799997775 -0.0059480001219 -0.011521999724 0.0015600000042
          -0.014198999852 -0.0020129999612 -0.00029900000663 -0.013639999554 -0.0089830001816 -0.00051500002155
          -0.0073230001144 0.00037500000326 -0.0011840000516 -0.0064630000852 -0.0068959998898 -0.00083500001347
          -0.0044069997966 -0.0028049999382 0.038178998977 -0.0069220000878 0.00028800001019 0.046006001532
          -0.006924000103 -0.00016900000628 0.045304998755
        </DataArray>
      </Points>
      <Verts>
        <DataArray type="Int32" Name="connectivity" format="ascii" RangeMin="1e+299" RangeMax="-1e+299">
        </DataArray>
        <DataArray type="Int32" Name="offsets" format="ascii" RangeMin="1e+299" RangeMax="-1e+299">
        </DataArray>
      </Verts>
      <Lines>
        <DataArray type="Int32" Name="connectivity" format="ascii" RangeMin="1e+299" RangeMax="-1e+299">
        </DataArray>
        <DataArray type="Int32" Name="offsets" format="ascii" RangeMin="1e+299" RangeMax="-1e+299">
        </DataArray>
      </Lines>
      <Strips>
        <DataArray type="Int32" Name="connectivity" format="ascii" RangeMin="1e+299" RangeMax="-1e+299">
        </DataArray>
        <DataArray type="Int32" Name="offsets" format="ascii" RangeMin="1e+299" RangeMax="-1e+299">
        </DataArray>
      </Strips>
      <Polys>
        <DataArray type="Int32" Name="connectivity" format="ascii" RangeMin="0" RangeMax="202">
          0 1 2 3 0 2
          0 4 1 0 2 1
          3 4 0 5 6 1
          7 1 6 2 1 7
          5 1 4 8 2 7
          3 2 8 3 9 4
          9 3 10 11 10 3
          11 3 8 4 9 12
          4 12 5 13 5 12
          5 13 6 14 6 13
          7 6 14 7 14 15
          8 7 16 7 15 16
          8 16 17 8 17 11
          12 9 18 19 18 9
          9 10 19 19 10 20
          21 20 10 21 10 11
          11 17 22 11 22 21
          23 12 18 13 12 23
          23 24 13 24 14 13
          24 15 14 15 25 16
          15 26 25 27 26 15
          27 15 24 28 17 16
          28 16 25 29 22 17
          29 17 28 30 31 18
          19 32 18 23 18 31
          32 30 18 33 32 19
          19 20 33 33 20 34
          20 21 35 20 35 34
          21 22 36 21 36 35
          37 36 22 37 22 29
          31 24 23 31 27 24
          38 25 26 39 28 25
          39 25 38 40 38 26
          40 26 27 30 40 27
          30 27 31 41 29 28
          41 28 39 42 37 29
          42 29 41 32 43 30
          43 40 30 33 44 32
          44 43 32 45 44 33
          33 34 45 45 34 46
          47 46 34 47 34 35
          35 36 48 35 48 47
          48 36 37 42 49 37
          50 37 49 48 37 50
          51 39 38 51 38 40
          52 41 39 52 39 51
          43 51 40 53 42 41
          53 41 52 54 49 42
          54 42 53 44 55 43
          55 51 43 45 56 44
          56 55 44 57 56 45
          45 46 57 57 46 58
          59 58 46 59 46 47
          47 48 60 61 59 47
          47 60 61 62 63 48
          60 48 63 62 48 50
          50 49 62 64 62 49
          64 49 54 55 52 51
          65 53 52 65 52 55
          66 54 53 66 53 65
          67 64 54 67 54 66
          56 65 55 57 68 56
          68 65 56 69 70 57
          70 68 57 57 58 69
          71 69 58 71 58 72
          73 72 58 73 58 59
          74 73 59 74 59 61
          75 76 60 75 60 63
          76 61 60 76 74 61
          62 64 77 78 63 62
          62 77 78 78 75 63
          79 77 64 79 64 67
          68 66 65 80 67 66
          80 66 68 81 79 67
          81 67 80 70 80 68
          82 83 69 82 69 71
          83 70 69 83 84 70
          84 80 70 71 72 82
          82 72 85 86 85 72
          86 72 73 87 86 73
          87 73 74 88 87 74
          88 74 76 89 90 75
          89 75 78 90 76 75
          90 88 76 91 92 77
          92 78 77 91 77 79
          92 89 78 93 91 79
          93 79 81 84 81 80
          94 93 81 94 81 84
          82 85 83 85 84 83
          85 94 84 94 85 95
          95 85 86 96 97 86
          96 86 87 95 86 97
          98 96 87 98 87 88
          98 88 90 99 100 89
          100 90 89 99 89 92
          100 98 90 101 102 91
          99 92 91 101 91 93
          99 91 102 103 101 93
          103 93 94 94 95 103
          95 97 104 105 103 95
          95 104 105 106 107 96
          106 96 98 107 97 96
          107 104 97 108 106 98
          108 98 100 109 100 99
          102 109 99 109 108 100
          110 111 101 110 101 103
          111 102 101 102 112 109
          111 112 102 105 110 103
          113 114 104 105 104 114
          113 104 107 115 110 105
          105 116 115 117 116 105
          105 114 117 106 108 118
          119 107 106 106 118 119
          119 113 107 120 118 108
          120 108 109 121 120 109
          121 109 112 122 111 110
          122 110 115 112 111 122
          112 122 121 123 124 113
          123 113 119 124 114 113
          124 125 114 117 114 125
          115 116 122 126 127 116
          128 122 116 126 116 117
          128 116 127 117 125 126
          129 130 118 120 129 118
          119 118 130 119 130 123
          120 121 131 120 131 129
          121 122 128 121 128 131
          132 123 130 133 124 123
          132 133 123 133 125 124
          133 134 125 126 125 134
          135 127 126 126 134 135
          135 136 127 136 128 127
          131 128 137 136 137 128
          129 138 130 129 131 139
          129 139 138 138 140 130
          140 132 130 131 137 139
          140 141 132 141 133 132
          141 142 133 142 134 133
          142 143 134 135 134 143
          144 136 135 135 143 144
          145 137 136 146 147 136
          148 146 136 147 145 136
          148 136 144 139 137 145
          138 139 149 150 140 138
          138 149 150 139 145 149
          150 151 140 141 140 151
          151 152 141 142 141 152
          152 153 142 153 143 142
          153 154 143 144 143 154
          144 154 148 149 145 147
          155 156 146 147 146 156
          155 146 148 157 147 158
          149 147 157 147 156 158
          148 154 159 148 159 155
          150 149 157 160 151 150
          150 157 160 161 152 151
          160 161 151 162 152 161
          163 152 162 164 153 152
          164 152 163 164 154 153
          164 159 154 165 166 155
          166 156 155 165 155 159
          166 167 156 158 156 167
          160 157 168 157 158 168
          168 158 169 158 167 169
          170 165 159 170 159 164
          171 161 160 160 168 171
          172 162 161 171 173 161
          172 161 173 174 162 172
          163 162 174 170 164 163
          174 175 163 170 163 175
          176 177 165 178 179 165
          165 179 166 176 165 170
          178 165 177 179 167 166
          167 179 180 167 180 169
          171 168 181 168 169 181
          169 180 182 169 182 183
          169 183 181 170 175 184
          170 184 176 171 181 185
          185 173 171 172 186 187
          173 186 172 172 187 174
          185 188 173 173 188 186
          174 187 175 187 184 175
          178 177 176 178 176 184
          189 190 178 189 178 191
          190 179 178 178 184 191
          190 180 179 192 182 180
          192 180 190 193 185 181
          193 181 183 182 192 183
          193 183 194 183 192 194
          191 184 195 187 195 184
          196 188 185 196 185 193
          186 197 195 186 188 196
          186 195 187 186 196 197
          194 189 198 191 198 189
          194 190 189 194 192 190
          191 199 198 191 195 199
          198 196 193 194 198 193
          199 195 197 197 196 198
          197 198 199 202 201 200
        </DataArray>
        <DataArray type="Int32" Name="offsets" format="ascii" RangeMin="3" RangeMax="1194">
          3 6 9 12 15 18
          21 24 27 30 33 36
          39 42 45 48 51 54
          57 60 63 66 69 72
          75 78 81 84 87 90
          93 96 99 102 105 108
          111 114 117 120 123 126
          129 132 135 138 141 144
          147 150 153 156 159 162
          165 168 171 174 177 180
          183 186 189 192 195 198
          201 204 207 210 213 216
          219 222 225 228 231 234
          237 240 243 246 249 252
          255 258 261 264 267 270
          273 276 279 282 285 288
          291 294 297 300 303 306
          309 312 315 318 321 324
          327 330 333 336 339 342
          345 348 351 354 357 360
          363 366 369 372 375 378
          381 384 387 390 393 396
          399 402 405 408 411 414
          417 420 423 426 429 432
          435 438 441 444 447 450
          453 456 459 462 465 468
          471 474 477 480 483 486
          489 492 495 498 501 504
          507 510 513 516 519 522
          525 528 531 534 537 540
          543 546 549 552 555 558
          561 564 567 570 573 576
          579 582 585 588 591 594
          597 600 603 606 609 612
          615 618 621 624 627 630
          633 636 639 642 645 648
          651 654 657 660 663 666
          669 672 675 678 681 684
          687 690 693 696 699 702
          705 708 711 714 717 720
          723 726 729 732 735 738
          741 744 747 750 753 756
          759 762 765 768 771 774
          777 780 783 786 789 792
          795 798 801 804 807 810
          813 816 819 822 825 828
          831 834 837 840 843 846
          849 852 855 858 861 864
          867 870 873 876 879 882
          885 888 891 894 897 900
          903 906 909 912 915 918
          921 924 927 930 933 936
          939 942 945 948 951 954
          957 960 963 966 969 972